 Gaussian 09, Revision D.01,
 Gaussian 09:  ES64L-G09RevD.01 24-Apr-2013

 ----------------------------------------------------------------------
 #p HF/6-31G* SCF Pop=(mk,readradii) iop(6/33=2) iop(6/42=6) iop(6/50=1
 )
 ----------------------------------------------------------------------

 ---
 HEM
 ---
 Symbolic Z-matrix:
 Charge =  0 Multiplicity = 3

                         Standard orientation:
 ---------------------------------------------------------------------
 Center     Atomic      Atomic             Coordinates (Angstroms)
 Number     Number       Type             X           Y           Z
 ---------------------------------------------------------------------
      1          6           0        3.785877   -2.697270    0.097963
      2          6           0       -6.057744   -2.693822    0.404943
      3          6           0       -3.893891    4.914027   -0.510287
      4          6           0        3.816115    2.716359   -0.036163
      5          7           0        0.288590   -1.434133    0.052502
      6          6           0        4.522632   -2.744107   -1.202562
      7          6           0       -6.685692   -3.655291    1.073964
      8          6           0       -3.081936    5.722463   -1.159376
      9          6           0        4.455692    2.578682    1.325052
     10          7           0       -2.594789   -1.448696    0.059084
     11          6           0        5.984107   -3.056255   -1.038065
     12          6           0        5.937442    2.795788    1.327083
     13          7           0        0.295889    1.422910   -0.141439
     14          6           0        2.275987   -0.058371   -0.105290
     15          6           0       -1.099925   -3.414394    0.072261
     16          6           0       -4.540949   -0.055957    0.068012
     17          6           0       -1.066687    3.369262   -0.346658
     18          6           0        1.538525   -4.931315    0.184177
     19          6           0       -3.859561   -4.952817    0.435036
     20          6           0       -6.076726    2.711108   -0.187220
     21          6           0        1.534951    4.882882   -0.209033
     22          6           0        1.640356   -1.244488   -0.008983
     23          6           0       -2.399468   -2.783513    0.129317
     24          6           0       -3.910554    1.259793   -0.090474
     25          6           0        0.111642    2.750263   -0.236940
     26          8           0        6.539207   -2.911912    0.040095
     27          8           0        6.498232    3.191054    2.338001
     28          6           0        2.297850   -2.473145    0.022071
     29          6           0       -3.617135   -3.466901    0.283010
     30          6           0       -4.590650    2.483090   -0.205715
     31          6           0        1.334526    3.415231   -0.199943
     32          8           0        6.666865   -3.582687   -2.070871
     33          8           0        6.665446    2.465609    0.247597
     34          6           0        1.317548   -3.447113    0.089686
     35          6           0       -4.590604   -2.498070    0.273346
     36          6           0       -3.625239    3.451846   -0.360884
     37          6           0        2.314690    2.462317   -0.103533
     38          6           0        0.093040   -2.783495    0.079821
     39          6           0       -3.929146   -1.261201    0.113891
     40          6           0       -2.392764    2.766997   -0.306738
     41          6           0        1.636132    1.238608   -0.107070
     42          7           0       -2.586367    1.447316   -0.137801
     43         26           0       -1.154348   -0.003651   -0.041632
     44          1           0        4.001719   -3.621562    0.622648
     45          1           0        4.230756   -1.915477    0.698472
     46          1           0       -6.685176   -1.984322   -0.047961
     47          1           0       -4.787086    5.361691   -0.116762
     48          1           0        4.312530    2.037832   -0.709733
     49          1           0        4.065525    3.708203   -0.394696
     50          1           0        4.400752   -1.800636   -1.713179
     51          1           0        4.052244   -3.498458   -1.823737
     52          1           0       -7.754524   -3.688435    1.113030
     53          1           0       -6.194902   -4.388738    1.635342
     54          1           0       -3.276550    6.763091   -1.268410
     55          1           0       -2.233036    5.356669   -1.641872
     56          1           0        4.005369    3.297035    1.994704
     57          1           0        4.237701    1.597791    1.714825
     58          1           0        3.340864   -0.026391   -0.244255
     59          1           0       -1.151171   -4.477908   -0.006053
     60          1           0       -5.599831   -0.018155    0.155234
     61          1           0       -1.037934    4.407259   -0.443114
     62          1           0        2.087343   -5.327924   -0.663386
     63          1           0        0.607919   -5.480508    0.223401
     64          1           0        2.085688   -5.223245    1.080635
     65          1           0       -4.889821   -5.240370    0.511179
     66          1           0       -3.392891   -5.370142    1.319806
     67          1           0       -3.533465   -5.535371   -0.410184
     68          1           0       -6.360100    3.755415   -0.310686
     69          1           0       -6.518805    2.392399    0.749965
     70          1           0       -6.591925    2.170489   -0.974831
     71          1           0        1.120062    5.318441   -1.105063
     72          1           0        2.575107    5.167158   -0.159859
     73          1           0        1.044770    5.343660    0.643798
 ---------------------------------------------------------------------

 SCF Done:  E(UHF) =  -3084.23278921     A.U. after   93 cycles

 The electronic state is 3-A.
 Alpha  occ. eigenvalues -- -261.67165 -32.31373 -27.81976 -27.77950 -27.77921
 Alpha  occ. eigenvalues --  -20.37012 -20.36958 -20.34181 -20.33001 -15.71939
 Alpha  occ. eigenvalues --  -15.68810 -15.68577 -15.67292 -11.41532 -11.40878
 Alpha  occ. eigenvalues --  -11.40222 -11.39942 -11.38495 -11.37085 -11.36789
 Alpha  occ. eigenvalues --  -11.36313 -11.36285 -11.35662 -11.35362 -11.35197
 Alpha  occ. eigenvalues --  -11.34798 -11.33949 -11.33639 -11.31980 -11.31743
 Alpha  occ. eigenvalues --  -11.31633 -11.31293 -11.31272 -11.31142 -11.31055
 Alpha  occ. eigenvalues --  -11.30870 -11.30765 -11.30498 -11.29893 -11.27868
 Alpha  occ. eigenvalues --  -11.26682 -11.22897 -11.21851 -11.21300 -11.20864
 Alpha  occ. eigenvalues --  -11.17892 -11.17325  -4.58543  -3.26067  -3.14291
 Alpha  occ. eigenvalues --   -3.14229  -1.43375  -1.40756  -1.40375  -1.38070
 Alpha  occ. eigenvalues --   -1.23602  -1.23472  -1.21809  -1.21363  -1.19873
 Alpha  occ. eigenvalues --   -1.18658  -1.17928  -1.17137  -1.15312  -1.13852
 Alpha  occ. eigenvalues --   -1.11895  -1.10833  -1.09276  -1.08826  -1.07874
 Alpha  occ. eigenvalues --   -1.05443  -1.05344  -1.04354  -1.02444  -1.01286
 Alpha  occ. eigenvalues --   -1.00099  -0.98982  -0.97917  -0.94525  -0.94285
 Alpha  occ. eigenvalues --   -0.94210  -0.92917  -0.91215  -0.91173  -0.89061
 Alpha  occ. eigenvalues --   -0.88807  -0.87582  -0.86132  -0.85443  -0.83452
 Alpha  occ. eigenvalues --   -0.82711  -0.81576  -0.81007  -0.80148  -0.79380
 Alpha  occ. eigenvalues --   -0.77498  -0.75422  -0.74635  -0.73632  -0.72233
 Alpha  occ. eigenvalues --   -0.71408  -0.70943  -0.69906  -0.69199  -0.68619
 Alpha  occ. eigenvalues --   -0.68516  -0.67997  -0.67597  -0.67055  -0.66399
 Alpha  occ. eigenvalues --   -0.66078  -0.65596  -0.65449  -0.64788  -0.64677
 Alpha  occ. eigenvalues --   -0.64097  -0.63999  -0.63860  -0.63307  -0.62582
 Alpha  occ. eigenvalues --   -0.62391  -0.62237  -0.61609  -0.60702  -0.60200
 Alpha  occ. eigenvalues --   -0.59708  -0.59619  -0.59373  -0.58748  -0.58184
 Alpha  occ. eigenvalues --   -0.57694  -0.56681  -0.56288  -0.55907  -0.55356
 Alpha  occ. eigenvalues --   -0.53955  -0.52532  -0.51697  -0.51479  -0.51305
 Alpha  occ. eigenvalues --   -0.49108  -0.48631  -0.48097  -0.47920  -0.47206
 Alpha  occ. eigenvalues --   -0.45666  -0.43675  -0.43180  -0.42860  -0.42258
 Alpha  occ. eigenvalues --   -0.41581  -0.40602  -0.39039  -0.38824  -0.37105
 Alpha  occ. eigenvalues --   -0.27522  -0.26994  -0.24829  -0.23874  -0.23524
 Alpha  occ. eigenvalues --   -0.22754
 Alpha virt. eigenvalues --   -0.12425  -0.09908  -0.05956  -0.03663   0.00234
 Alpha virt. eigenvalues --    0.01789   0.04360   0.07859   0.08250   0.08443
 Alpha virt. eigenvalues --    0.08849   0.12368   0.15247   0.16552   0.16710

  Beta  occ. eigenvalues -- -261.66930 -32.21088 -27.70013 -27.70006 -27.67678
  Beta  occ. eigenvalues --  -20.37023 -20.36988 -20.34202 -20.33050 -15.71358
  Beta  occ. eigenvalues --  -15.69095 -15.68854 -15.67916 -11.42570 -11.41183
  Beta  occ. eigenvalues --  -11.40795 -11.40593 -11.38707 -11.38332 -11.37473
  Beta  occ. eigenvalues --  -11.37309 -11.36843 -11.35230 -11.34667 -11.34293
  Beta  occ. eigenvalues --  -11.34110 -11.33507 -11.32843 -11.32403 -11.31975
  Beta  occ. eigenvalues --  -11.31801 -11.31691 -11.31560 -11.31283 -11.31254
  Beta  occ. eigenvalues --  -11.30863 -11.30341 -11.29807 -11.29657 -11.27999
  Beta  occ. eigenvalues --  -11.26693 -11.22809 -11.21843 -11.21300 -11.20859
  Beta  occ. eigenvalues --  -11.17965 -11.17348  -4.29432  -2.86475  -2.86424
  Beta  occ. eigenvalues --   -2.76617  -1.44093  -1.41871  -1.41665  -1.39386
  Beta  occ. eigenvalues --   -1.23672  -1.23510  -1.22261  -1.21115  -1.20211
  Beta  occ. eigenvalues --   -1.19122  -1.18412  -1.17502  -1.15986  -1.14389
  Beta  occ. eigenvalues --   -1.12466  -1.10472  -1.09962  -1.09145  -1.07999
  Beta  occ. eigenvalues --   -1.05685  -1.04849  -1.04360  -1.03292  -1.01748
  Beta  occ. eigenvalues --   -1.00599  -0.99080  -0.98386  -0.93474  -0.91439
  Beta  occ. eigenvalues --   -0.89861  -0.89504  -0.89251  -0.87508  -0.85811
  Beta  occ. eigenvalues --   -0.84193  -0.83484  -0.82421  -0.81389  -0.80664
  Beta  occ. eigenvalues --   -0.79582  -0.77660  -0.75834  -0.75038  -0.74542
  Beta  occ. eigenvalues --   -0.73911  -0.73356  -0.72503  -0.71591  -0.71035
  Beta  occ. eigenvalues --   -0.70853  -0.70003  -0.69683  -0.68433  -0.67932
  Beta  occ. eigenvalues --   -0.67737  -0.67664  -0.66504  -0.65525  -0.65326
  Beta  occ. eigenvalues --   -0.65076  -0.64733  -0.64631  -0.64329  -0.63614
  Beta  occ. eigenvalues --   -0.63520  -0.62948  -0.62690  -0.62457  -0.61714
  Beta  occ. eigenvalues --   -0.60697  -0.60579  -0.60031  -0.59585  -0.59465
  Beta  occ. eigenvalues --   -0.59168  -0.58807  -0.58249  -0.57356  -0.57008
  Beta  occ. eigenvalues --   -0.56247  -0.55470  -0.55168  -0.52818  -0.52472
  Beta  occ. eigenvalues --   -0.51548  -0.50803  -0.49160  -0.49058  -0.48432
  Beta  occ. eigenvalues --   -0.48094  -0.47997  -0.47040  -0.43980  -0.43539
  Beta  occ. eigenvalues --   -0.43175  -0.42833  -0.41530  -0.40920  -0.39778
  Beta  occ. eigenvalues --   -0.39065  -0.38806  -0.33821  -0.27760  -0.27294
  Beta  occ. eigenvalues --   -0.24991  -0.24153  -0.23564  -0.22842
  Beta virt. eigenvalues --   -0.07499  -0.05893  -0.03840   0.00870   0.02176
  Beta virt. eigenvalues --    0.04806   0.05305   0.06587   0.07614   0.07999
  Beta virt. eigenvalues --    0.08100   0.09405   0.10019   0.11056   0.15162

 Mulliken charges and spin densities:
               1          2
     1  C   -0.373536   0.006764
     2  C   -0.144039  -0.605151
     3  C   -0.132439   0.427299
     4  C   -0.363445   0.050646
     5  N   -1.102863  -0.130952
     6  C   -0.415411  -0.007157
     7  C   -0.378689   0.612695
     8  C   -0.384217  -0.455333
     9  C   -0.407170  -0.018645
    10  N   -1.078134  -0.038727
    11  C    0.757712   0.002293
    12  C    0.751656   0.000057
    13  N   -1.078314  -0.025224
    14  C   -0.313794   0.221689
    15  C   -0.376447  -0.131154
    16  C   -0.286328   0.765356
    17  C   -0.289501   0.716421
    18  C   -0.511845  -0.006303
    19  C   -0.541956   0.075799
    20  C   -0.525973  -0.028612
    21  C   -0.533852  -0.065124
    22  C    0.448932  -0.280518
    23  C    0.423911   0.073901
    24  C    0.381708  -0.634283
    25  C    0.434373  -0.640351
    26  O   -0.671824  -0.002084
    27  O   -0.685454  -0.005612
    28  C    0.065151  -0.075237
    29  C    0.017268  -0.679845
    30  C   -0.015985   0.296530
    31  C    0.002945   0.618463
    32  O   -0.817906  -0.010227
    33  O   -0.804588  -0.004162
    34  C   -0.059991   0.062932
    35  C   -0.036830   0.718062
    36  C   -0.026493  -0.291703
    37  C    0.021899  -0.509769
    38  C    0.509923  -0.116179
    39  C    0.423353  -0.672043
    40  C    0.409054  -0.524465
    41  C    0.428924  -0.184000
    42  N   -1.019035   0.222801
    43  Fe   1.812514   3.359055
    44  H    0.221026  -0.000765
    45  H    0.231645  -0.002146
    46  H    0.206919   0.042059
    47  H    0.237113  -0.028226
    48  H    0.243940  -0.009957
    49  H    0.210966  -0.003335
    50  H    0.159330   0.000582
    51  H    0.163983   0.000422
    52  H    0.211877  -0.044438
    53  H    0.207588  -0.041698
    54  H    0.228250   0.031799
    55  H    0.199050   0.031999
    56  H    0.155485   0.001147
    57  H    0.162373   0.001284
    58  H    0.340838  -0.010288
    59  H    0.260266   0.010056
    60  H    0.256574  -0.043198
    61  H    0.269295  -0.040003
    62  H    0.233518   0.001499
    63  H    0.168331   0.000382
    64  H    0.221730   0.001805
    65  H    0.218518  -0.003074
    66  H    0.210537  -0.020046
    67  H    0.212387  -0.019276
    68  H    0.211395   0.001910
    69  H    0.203617   0.006704
    70  H    0.204786   0.006676
    71  H    0.185535   0.018093
    72  H    0.252923   0.002923
    73  H    0.196936   0.019204
 Sum of Mulliken charges =   0.00000   2.00000

 Dipole moment (field-independent basis, Debye):
    X=            -63.3664    Y=              4.4172    Z=             -0.4887  Tot=             63.5220
 Quadrupole moment (field-independent basis, Debye-Ang):
   XX=           -541.7151   YY=           -229.9370   ZZ=           -284.1422
   XY=             16.0669   XZ=             -3.1805   YZ=            -46.8605

 ESP charges:
               1
     1  C    0.068856
     2  C   -0.181779
     3  C   -0.165047
     4  C    0.090257
     5  N   -0.750842
     6  C   -0.276431
     7  C   -0.311325
     8  C   -0.333398
     9  C   -0.261844
    10  N   -0.497824
    11  C    0.867315
    12  C    0.840541
    13  N   -0.613717
    14  C   -0.669659
    15  C   -0.595291
    16  C   -0.253535
    17  C   -0.263594
    18  C   -0.333889
    19  C   -0.359048
    20  C   -0.340730
    21  C   -0.458875
    22  C    0.574205
    23  C    0.324529
    24  C    0.204357
    25  C    0.156971
    26  O   -0.730258
    27  O   -0.755367
    28  C   -0.121500
    29  C    0.168017
    30  C    0.060756
    31  C    0.233445
    32  O   -0.854276
    33  O   -0.813708
    34  C   -0.015900
    35  C   -0.001776
    36  C   -0.009673
    37  C   -0.202548
    38  C    0.551337
    39  C    0.169463
    40  C    0.344581
    41  C    0.621529
    42  N   -0.471077
    43  Fe   1.377334
    44  H    0.066210
    45  H    0.012535
    46  H    0.157390
    47  H    0.185278
    48  H    0.002104
    49  H    0.041917
    50  H    0.047748
    51  H    0.050909
    52  H    0.175432
    53  H    0.174821
    54  H    0.194498
    55  H    0.185684
    56  H    0.035895
    57  H    0.072719
    58  H    0.403248
    59  H    0.241481
    60  H    0.176253
    61  H    0.178152
    62  H    0.164248
    63  H    0.073598
    64  H    0.142142
    65  H    0.145192
    66  H    0.122550
    67  H    0.116382
    68  H    0.132710
    69  H    0.116123
    70  H    0.120928
    71  H    0.109845
    72  H    0.209715
    73  H    0.133712
 Sum of ESP charges =   0.00000

 Normal termination of Gaussian 09 at Thu Aug 19 19:53:33 2021.
